BEGIN_INFO
Fermi Energy: -0.202788386382
END_INFO

BEGIN_BLOCK_BANDGRID_3D
comment_line
BEGIN_BANDGRID_3D_simple_example
3
12 12 12
0.0 0.0 0.0
   1.1943384158    0.0000000000    0.0000000000
   0.0000000000    1.1943384158    0.0000000000
   0.0000000000    0.0000000000    1.1943384158
BAND:  15
  -0.19655   -0.20225   -0.21689   -0.23551   -0.25390   -0.25161   -0.25161   -0.25390   -0.23551   -0.21689   -0.20225   -0.19655 
  -0.20225   -0.21215   -0.22889   -0.23975   -0.25457   -0.24072   -0.24072   -0.25457   -0.23975   -0.22889   -0.21215   -0.20225 
  -0.21689   -0.22889   -0.24220   -0.24880   -0.23738   -0.22323   -0.22323   -0.23738   -0.24880   -0.24220   -0.22889   -0.21689 
  -0.23551   -0.23975   -0.24880   -0.23990   -0.23322   -0.20729   -0.20729   -0.23322   -0.23991   -0.24880   -0.23975   -0.23551 
  -0.25390   -0.25457   -0.23738   -0.23322   -0.23745   -0.20796   -0.20796   -0.23745   -0.23322   -0.23738   -0.25457   -0.25390 
  -0.25161   -0.24072   -0.22323   -0.20729   -0.20796   -0.20378   -0.20379   -0.20796   -0.20729   -0.22323   -0.24072   -0.25161 
  -0.25161   -0.24072   -0.22323   -0.20729   -0.20796   -0.20378   -0.20379   -0.20796   -0.20729   -0.22323   -0.24072   -0.25161 
  -0.25390   -0.25457   -0.23738   -0.23322   -0.23745   -0.20796   -0.20796   -0.23745   -0.23322   -0.23738   -0.25457   -0.25390 
  -0.23551   -0.23975   -0.24880   -0.23990   -0.23322   -0.20729   -0.20729   -0.23322   -0.23990   -0.24880   -0.23975   -0.23551 
  -0.21689   -0.22889   -0.24220   -0.24880   -0.23738   -0.22323   -0.22323   -0.23738   -0.24880   -0.24220   -0.22889   -0.21689 
  -0.20225   -0.21215   -0.22889   -0.23975   -0.25457   -0.24072   -0.24072   -0.25457   -0.23975   -0.22889   -0.21215   -0.20225 
  -0.19655   -0.20225   -0.21689   -0.23551   -0.25390   -0.25161   -0.25161   -0.25390   -0.23551   -0.21689   -0.20225   -0.19655 

  -0.20225   -0.21215   -0.22889   -0.23975   -0.25457   -0.24072   -0.24072   -0.25457   -0.23975   -0.22889   -0.21215   -0.20225 
  -0.21215   -0.22536   -0.24172   -0.23556   -0.24541   -0.23367   -0.23367   -0.24541   -0.23556   -0.24172   -0.22536   -0.21215 
  -0.22889   -0.24172   -0.24310   -0.23816   -0.23347   -0.22498   -0.22498   -0.23347   -0.23816   -0.24310   -0.24172   -0.22889 
  -0.23975   -0.23556   -0.23816   -0.24005   -0.23494   -0.22233   -0.22233   -0.23494   -0.24005   -0.23816   -0.23556   -0.23975 
  -0.25457   -0.24541   -0.23347   -0.23494   -0.23735   -0.22512   -0.22512   -0.23735   -0.23494   -0.23347   -0.24541   -0.25457 
  -0.24072   -0.23367   -0.22498   -0.22233   -0.22512   -0.23456   -0.23456   -0.22512   -0.22233   -0.22498   -0.23367   -0.24072 
  -0.24072   -0.23367   -0.22498   -0.22233   -0.22512   -0.23456   -0.23456   -0.22512   -0.22233   -0.22498   -0.23367   -0.24072 
  -0.25457   -0.24541   -0.23347   -0.23494   -0.23735   -0.22512   -0.22512   -0.23735   -0.23494   -0.23347   -0.24541   -0.25457 
  -0.23975   -0.23556   -0.23816   -0.24005   -0.23494   -0.22233   -0.22233   -0.23494   -0.24005   -0.23816   -0.23556   -0.23975 
  -0.22889   -0.24172   -0.24310   -0.23816   -0.23347   -0.22498   -0.22498   -0.23347   -0.23816   -0.24310   -0.24172   -0.22889 
  -0.21215   -0.22536   -0.24172   -0.23556   -0.24541   -0.23367   -0.23367   -0.24541   -0.23556   -0.24172   -0.22536   -0.21215 
  -0.20225   -0.21215   -0.22889   -0.23975   -0.25457   -0.24072   -0.24072   -0.25457   -0.23975   -0.22889   -0.21215   -0.20225 

  -0.21689   -0.22889   -0.24220   -0.24880   -0.23738   -0.22323   -0.22323   -0.23738   -0.24880   -0.24220   -0.22889   -0.21689 
  -0.22889   -0.24172   -0.24310   -0.23816   -0.23347   -0.22498   -0.22498   -0.23347   -0.23816   -0.24310   -0.24172   -0.22889 
  -0.24220   -0.24310   -0.24218   -0.22873   -0.23386   -0.22684   -0.22684   -0.23386   -0.22873   -0.24218   -0.24310   -0.24220 
  -0.24880   -0.23816   -0.22873   -0.23373   -0.23604   -0.22893   -0.22893   -0.23604   -0.23373   -0.22873   -0.23816   -0.24880 
  -0.23738   -0.23347   -0.23386   -0.23604   -0.23714   -0.23230   -0.23230   -0.23714   -0.23604   -0.23386   -0.23347   -0.23738 
  -0.22323   -0.22498   -0.22684   -0.22893   -0.23230   -0.23537   -0.23537   -0.23230   -0.22893   -0.22684   -0.22498   -0.22323 
  -0.22323   -0.22498   -0.22684   -0.22893   -0.23230   -0.23537   -0.23537   -0.23230   -0.22893   -0.22684   -0.22498   -0.22323 
  -0.23738   -0.23347   -0.23386   -0.23604   -0.23714   -0.23230   -0.23230   -0.23714   -0.23604   -0.23386   -0.23347   -0.23738 
  -0.24880   -0.23816   -0.22873   -0.23373   -0.23604   -0.22893   -0.22893   -0.23604   -0.23373   -0.22873   -0.23816   -0.24880 
  -0.24220   -0.24310   -0.24218   -0.22873   -0.23386   -0.22684   -0.22684   -0.23386   -0.22873   -0.24218   -0.24310   -0.24220 
  -0.22889   -0.24172   -0.24310   -0.23816   -0.23347   -0.22498   -0.22498   -0.23347   -0.23816   -0.24310   -0.24172   -0.22889 
  -0.21689   -0.22889   -0.24220   -0.24880   -0.23738   -0.22323   -0.22323   -0.23738   -0.24880   -0.24220   -0.22889   -0.21689 

  -0.23551   -0.23975   -0.24880   -0.23990   -0.23322   -0.20729   -0.20729   -0.23322   -0.23990   -0.24880   -0.23975   -0.23551 
  -0.23975   -0.23556   -0.23816   -0.24005   -0.23494   -0.22233   -0.22233   -0.23494   -0.24005   -0.23816   -0.23556   -0.23975 
  -0.24880   -0.23816   -0.22873   -0.23373   -0.23604   -0.22893   -0.22893   -0.23604   -0.23373   -0.22873   -0.23816   -0.24880 
  -0.23990   -0.24005   -0.23373   -0.22513   -0.23588   -0.23192   -0.23192   -0.23588   -0.22513   -0.23373   -0.24005   -0.23990 
  -0.23322   -0.23494   -0.23604   -0.23588   -0.23660   -0.23406   -0.23406   -0.23660   -0.23588   -0.23604   -0.23494   -0.23322 
  -0.20729   -0.22233   -0.22893   -0.23192   -0.23406   -0.23501   -0.23501   -0.23406   -0.23192   -0.22893   -0.22233   -0.20729 
  -0.20729   -0.22233   -0.22893   -0.23192   -0.23406   -0.23501   -0.23501   -0.23406   -0.23192   -0.22893   -0.22233   -0.20729 
  -0.23322   -0.23494   -0.23604   -0.23588   -0.23660   -0.23406   -0.23406   -0.23660   -0.23588   -0.23604   -0.23494   -0.23322 
  -0.23990   -0.24005   -0.23373   -0.22513   -0.23588   -0.23192   -0.23192   -0.23588   -0.22513   -0.23373   -0.24005   -0.23990 
  -0.24880   -0.23816   -0.22873   -0.23373   -0.23604   -0.22893   -0.22893   -0.23604   -0.23373   -0.22873   -0.23816   -0.24880 
  -0.23975   -0.23556   -0.23816   -0.24005   -0.23494   -0.22233   -0.22233   -0.23494   -0.24005   -0.23816   -0.23556   -0.23975 
  -0.23551   -0.23975   -0.24880   -0.23990   -0.23322   -0.20729   -0.20729   -0.23322   -0.23990   -0.24880   -0.23975   -0.23551 

  -0.25390   -0.25457   -0.23738   -0.23322   -0.23745   -0.20796   -0.20796   -0.23745   -0.23322   -0.23738   -0.25457   -0.25390 
  -0.25457   -0.24541   -0.23347   -0.23494   -0.23735   -0.22512   -0.22512   -0.23735   -0.23494   -0.23347   -0.24541   -0.25457 
  -0.23738   -0.23347   -0.23386   -0.23604   -0.23714   -0.23230   -0.23230   -0.23714   -0.23604   -0.23386   -0.23347   -0.23738 
  -0.23322   -0.23494   -0.23604   -0.23588   -0.23660   -0.23406   -0.23406   -0.23660   -0.23588   -0.23604   -0.23494   -0.23322 
  -0.23745   -0.23735   -0.23714   -0.23660   -0.23309   -0.23470   -0.23470   -0.23309   -0.23660   -0.23714   -0.23735   -0.23745 
  -0.20796   -0.22512   -0.23230   -0.23406   -0.23470   -0.23470   -0.23470   -0.23470   -0.23406   -0.23230   -0.22512   -0.20796 
  -0.20796   -0.22512   -0.23230   -0.23406   -0.23470   -0.23470   -0.23470   -0.23470   -0.23406   -0.23230   -0.22512   -0.20796 
  -0.23745   -0.23735   -0.23714   -0.23660   -0.23309   -0.23470   -0.23470   -0.23309   -0.23660   -0.23714   -0.23735   -0.23745 
  -0.23322   -0.23494   -0.23604   -0.23588   -0.23660   -0.23406   -0.23406   -0.23660   -0.23588   -0.23604   -0.23494   -0.23322 
  -0.23738   -0.23347   -0.23386   -0.23604   -0.23714   -0.23230   -0.23230   -0.23714   -0.23604   -0.23386   -0.23347   -0.23738 
  -0.25457   -0.24541   -0.23347   -0.23494   -0.23735   -0.22512   -0.22512   -0.23735   -0.23494   -0.23347   -0.24541   -0.25457 
  -0.25390   -0.25457   -0.23738   -0.23322   -0.23745   -0.20796   -0.20796   -0.23745   -0.23322   -0.23738   -0.25457   -0.25390 

  -0.25161   -0.24072   -0.22323   -0.20729   -0.20796   -0.20378   -0.20379   -0.20796   -0.20729   -0.22323   -0.24072   -0.25161 
  -0.24072   -0.23367   -0.22498   -0.22233   -0.22512   -0.23456   -0.23456   -0.22512   -0.22233   -0.22498   -0.23367   -0.24072 
  -0.22323   -0.22498   -0.22684   -0.22893   -0.23230   -0.23537   -0.23537   -0.23230   -0.22893   -0.22684   -0.22498   -0.22323 
  -0.20729   -0.22233   -0.22893   -0.23192   -0.23406   -0.23501   -0.23501   -0.23406   -0.23192   -0.22893   -0.22233   -0.20729 
  -0.20796   -0.22512   -0.23230   -0.23406   -0.23470   -0.23470   -0.23470   -0.23470   -0.23406   -0.23230   -0.22512   -0.20796 
  -0.20378   -0.23456   -0.23537   -0.23501   -0.23470   -0.23436   -0.23436   -0.23470   -0.23501   -0.23537   -0.23456   -0.20378 
  -0.20378   -0.23456   -0.23537   -0.23501   -0.23470   -0.23436   -0.23436   -0.23470   -0.23501   -0.23537   -0.23456   -0.20378 
  -0.20796   -0.22512   -0.23230   -0.23406   -0.23470   -0.23470   -0.23470   -0.23470   -0.23406   -0.23230   -0.22512   -0.20796 
  -0.20729   -0.22233   -0.22893   -0.23192   -0.23406   -0.23501   -0.23501   -0.23406   -0.23192   -0.22893   -0.22233   -0.20729 
  -0.22323   -0.22498   -0.22684   -0.22893   -0.23230   -0.23537   -0.23537   -0.23230   -0.22893   -0.22684   -0.22498   -0.22323 
  -0.24072   -0.23367   -0.22498   -0.22233   -0.22512   -0.23456   -0.23456   -0.22512   -0.22233   -0.22498   -0.23367   -0.24072 
  -0.25161   -0.24072   -0.22323   -0.20729   -0.20796   -0.20378   -0.20379   -0.20796   -0.20729   -0.22323   -0.24072   -0.25161 

  -0.25161   -0.24072   -0.22323   -0.20729   -0.20796   -0.20378   -0.20379   -0.20796   -0.20729   -0.22323   -0.24072   -0.25161 
  -0.24072   -0.23367   -0.22498   -0.22233   -0.22512   -0.23456   -0.23456   -0.22512   -0.22233   -0.22498   -0.23367   -0.24072 
  -0.22323   -0.22498   -0.22684   -0.22893   -0.23230   -0.23537   -0.23537   -0.23230   -0.22893   -0.22684   -0.22498   -0.22323 
  -0.20729   -0.22233   -0.22893   -0.23192   -0.23406   -0.23501   -0.23501   -0.23406   -0.23192   -0.22893   -0.22233   -0.20729 
  -0.20796   -0.22512   -0.23230   -0.23406   -0.23470   -0.23470   -0.23470   -0.23470   -0.23406   -0.23230   -0.22512   -0.20796 
  -0.20379   -0.23456   -0.23537   -0.23501   -0.23470   -0.23436   -0.23436   -0.23470   -0.23501   -0.23537   -0.23456   -0.20379 
  -0.20378   -0.23456   -0.23537   -0.23501   -0.23470   -0.23436   -0.23436   -0.23470   -0.23501   -0.23537   -0.23456   -0.20378 
  -0.20796   -0.22512   -0.23230   -0.23406   -0.23470   -0.23470   -0.23470   -0.23470   -0.23406   -0.23230   -0.22512   -0.20796 
  -0.20729   -0.22233   -0.22893   -0.23192   -0.23406   -0.23501   -0.23501   -0.23406   -0.23192   -0.22893   -0.22233   -0.20729 
  -0.22323   -0.22498   -0.22684   -0.22893   -0.23230   -0.23537   -0.23537   -0.23230   -0.22893   -0.22684   -0.22498   -0.22323 
  -0.24072   -0.23367   -0.22498   -0.22233   -0.22512   -0.23456   -0.23456   -0.22512   -0.22233   -0.22498   -0.23367   -0.24072 
  -0.25161   -0.24072   -0.22323   -0.20729   -0.20796   -0.20378   -0.20379   -0.20796   -0.20729   -0.22323   -0.24072   -0.25161 

  -0.25390   -0.25457   -0.23738   -0.23322   -0.23745   -0.20796   -0.20796   -0.23745   -0.23322   -0.23738   -0.25457   -0.25390 
  -0.25457   -0.24541   -0.23347   -0.23494   -0.23735   -0.22512   -0.22512   -0.23735   -0.23494   -0.23347   -0.24541   -0.25457 
  -0.23738   -0.23347   -0.23386   -0.23604   -0.23714   -0.23230   -0.23230   -0.23714   -0.23604   -0.23386   -0.23347   -0.23738 
  -0.23322   -0.23494   -0.23604   -0.23588   -0.23660   -0.23406   -0.23406   -0.23660   -0.23588   -0.23604   -0.23494   -0.23322 
  -0.23745   -0.23735   -0.23714   -0.23660   -0.23309   -0.23470   -0.23470   -0.23309   -0.23660   -0.23714   -0.23735   -0.23745 
  -0.20796   -0.22512   -0.23230   -0.23406   -0.23470   -0.23470   -0.23470   -0.23470   -0.23406   -0.23230   -0.22512   -0.20796 
  -0.20796   -0.22512   -0.23230   -0.23406   -0.23470   -0.23470   -0.23470   -0.23470   -0.23406   -0.23230   -0.22512   -0.20796 
  -0.23745   -0.23735   -0.23714   -0.23660   -0.23309   -0.23470   -0.23470   -0.23309   -0.23660   -0.23714   -0.23735   -0.23745 
  -0.23322   -0.23494   -0.23604   -0.23588   -0.23660   -0.23406   -0.23406   -0.23660   -0.23588   -0.23604   -0.23494   -0.23322 
  -0.23738   -0.23347   -0.23386   -0.23604   -0.23714   -0.23230   -0.23230   -0.23714   -0.23604   -0.23386   -0.23347   -0.23738 
  -0.25457   -0.24541   -0.23347   -0.23494   -0.23735   -0.22512   -0.22512   -0.23735   -0.23494   -0.23347   -0.24541   -0.25457 
  -0.25390   -0.25457   -0.23738   -0.23322   -0.23745   -0.20796   -0.20796   -0.23745   -0.23322   -0.23738   -0.25457   -0.25390 

  -0.23551   -0.23975   -0.24880   -0.23990   -0.23322   -0.20729   -0.20729   -0.23322   -0.23990   -0.24880   -0.23975   -0.23551 
  -0.23975   -0.23556   -0.23816   -0.24005   -0.23494   -0.22233   -0.22233   -0.23494   -0.24005   -0.23816   -0.23556   -0.23975 
  -0.24880   -0.23816   -0.22873   -0.23373   -0.23604   -0.22893   -0.22893   -0.23604   -0.23373   -0.22873   -0.23816   -0.24880 
  -0.23990   -0.24005   -0.23373   -0.22513   -0.23588   -0.23192   -0.23192   -0.23588   -0.22513   -0.23373   -0.24005   -0.23990 
  -0.23322   -0.23494   -0.23604   -0.23588   -0.23660   -0.23406   -0.23406   -0.23660   -0.23588   -0.23604   -0.23494   -0.23322 
  -0.20729   -0.22233   -0.22893   -0.23192   -0.23406   -0.23501   -0.23501   -0.23406   -0.23192   -0.22893   -0.22233   -0.20729 
  -0.20729   -0.22233   -0.22893   -0.23192   -0.23406   -0.23501   -0.23501   -0.23406   -0.23192   -0.22893   -0.22233   -0.20729 
  -0.23322   -0.23494   -0.23604   -0.23588   -0.23660   -0.23406   -0.23406   -0.23660   -0.23588   -0.23604   -0.23494   -0.23322 
  -0.23990   -0.24005   -0.23373   -0.22513   -0.23588   -0.23192   -0.23192   -0.23588   -0.22513   -0.23373   -0.24005   -0.23990 
  -0.24880   -0.23816   -0.22873   -0.23373   -0.23604   -0.22893   -0.22893   -0.23604   -0.23373   -0.22873   -0.23816   -0.24880 
  -0.23975   -0.23556   -0.23816   -0.24005   -0.23494   -0.22233   -0.22233   -0.23494   -0.24005   -0.23816   -0.23556   -0.23975 
  -0.23551   -0.23975   -0.24880   -0.23990   -0.23322   -0.20729   -0.20729   -0.23322   -0.23990   -0.24880   -0.23975   -0.23551 

  -0.21689   -0.22889   -0.24220   -0.24880   -0.23738   -0.22323   -0.22323   -0.23738   -0.24880   -0.24220   -0.22889   -0.21689 
  -0.22889   -0.24172   -0.24310   -0.23816   -0.23347   -0.22498   -0.22498   -0.23347   -0.23816   -0.24310   -0.24172   -0.22889 
  -0.24220   -0.24310   -0.24218   -0.22873   -0.23386   -0.22684   -0.22684   -0.23386   -0.22873   -0.24218   -0.24310   -0.24220 
  -0.24880   -0.23816   -0.22873   -0.23373   -0.23604   -0.22893   -0.22893   -0.23604   -0.23373   -0.22873   -0.23816   -0.24880 
  -0.23738   -0.23347   -0.23386   -0.23604   -0.23714   -0.23230   -0.23230   -0.23714   -0.23604   -0.23386   -0.23347   -0.23738 
  -0.22323   -0.22498   -0.22684   -0.22893   -0.23230   -0.23537   -0.23537   -0.23230   -0.22893   -0.22684   -0.22498   -0.22323 
  -0.22323   -0.22498   -0.22684   -0.22893   -0.23230   -0.23537   -0.23537   -0.23230   -0.22893   -0.22684   -0.22498   -0.22323 
  -0.23738   -0.23347   -0.23386   -0.23604   -0.23714   -0.23230   -0.23230   -0.23714   -0.23604   -0.23386   -0.23347   -0.23738 
  -0.24880   -0.23816   -0.22873   -0.23373   -0.23604   -0.22893   -0.22893   -0.23604   -0.23373   -0.22873   -0.23816   -0.24880 
  -0.24220   -0.24310   -0.24218   -0.22873   -0.23386   -0.22684   -0.22684   -0.23386   -0.22873   -0.24218   -0.24310   -0.24220 
  -0.22889   -0.24172   -0.24310   -0.23816   -0.23347   -0.22498   -0.22498   -0.23347   -0.23816   -0.24310   -0.24172   -0.22889 
  -0.21689   -0.22889   -0.24220   -0.24880   -0.23738   -0.22323   -0.22323   -0.23738   -0.24880   -0.24220   -0.22889   -0.21689 

  -0.20225   -0.21215   -0.22889   -0.23975   -0.25457   -0.24072   -0.24072   -0.25457   -0.23975   -0.22889   -0.21215   -0.20225 
  -0.21215   -0.22536   -0.24172   -0.23556   -0.24541   -0.23367   -0.23367   -0.24541   -0.23556   -0.24172   -0.22536   -0.21215 
  -0.22889   -0.24172   -0.24310   -0.23816   -0.23347   -0.22498   -0.22498   -0.23347   -0.23816   -0.24310   -0.24172   -0.22889 
  -0.23975   -0.23556   -0.23816   -0.24005   -0.23494   -0.22233   -0.22233   -0.23494   -0.24005   -0.23816   -0.23556   -0.23975 
  -0.25457   -0.24541   -0.23347   -0.23494   -0.23735   -0.22512   -0.22512   -0.23735   -0.23494   -0.23347   -0.24541   -0.25457 
  -0.24072   -0.23367   -0.22498   -0.22233   -0.22512   -0.23456   -0.23456   -0.22512   -0.22233   -0.22498   -0.23367   -0.24072 
  -0.24072   -0.23367   -0.22498   -0.22233   -0.22512   -0.23456   -0.23456   -0.22512   -0.22233   -0.22498   -0.23367   -0.24072 
  -0.25457   -0.24541   -0.23347   -0.23494   -0.23735   -0.22512   -0.22512   -0.23735   -0.23494   -0.23347   -0.24541   -0.25457 
  -0.23975   -0.23556   -0.23816   -0.24005   -0.23494   -0.22233   -0.22233   -0.23494   -0.24005   -0.23816   -0.23556   -0.23975 
  -0.22889   -0.24172   -0.24310   -0.23816   -0.23347   -0.22498   -0.22498   -0.23347   -0.23816   -0.24310   -0.24172   -0.22889 
  -0.21215   -0.22536   -0.24172   -0.23556   -0.24541   -0.23367   -0.23367   -0.24541   -0.23556   -0.24172   -0.22536   -0.21215 
  -0.20225   -0.21215   -0.22889   -0.23975   -0.25457   -0.24072   -0.24072   -0.25457   -0.23975   -0.22889   -0.21215   -0.20225 

  -0.19655   -0.20225   -0.21689   -0.23551   -0.25390   -0.25161   -0.25161   -0.25390   -0.23551   -0.21689   -0.20225   -0.19655 
  -0.20225   -0.21215   -0.22889   -0.23975   -0.25457   -0.24072   -0.24072   -0.25457   -0.23975   -0.22889   -0.21215   -0.20225 
  -0.21689   -0.22889   -0.24220   -0.24880   -0.23738   -0.22323   -0.22323   -0.23738   -0.24880   -0.24220   -0.22889   -0.21689 
  -0.23551   -0.23975   -0.24880   -0.23990   -0.23322   -0.20729   -0.20729   -0.23322   -0.23991   -0.24880   -0.23975   -0.23551 
  -0.25390   -0.25457   -0.23738   -0.23322   -0.23745   -0.20796   -0.20796   -0.23745   -0.23322   -0.23738   -0.25457   -0.25390 
  -0.25161   -0.24072   -0.22323   -0.20729   -0.20796   -0.20378   -0.20379   -0.20796   -0.20729   -0.22323   -0.24072   -0.25161 
  -0.25161   -0.24072   -0.22323   -0.20729   -0.20796   -0.20378   -0.20379   -0.20796   -0.20729   -0.22323   -0.24072   -0.25161 
  -0.25390   -0.25457   -0.23738   -0.23322   -0.23745   -0.20796   -0.20796   -0.23745   -0.23322   -0.23738   -0.25457   -0.25390 
  -0.23551   -0.23975   -0.24880   -0.23990   -0.23322   -0.20729   -0.20729   -0.23322   -0.23990   -0.24880   -0.23975   -0.23551 
  -0.21689   -0.22889   -0.24220   -0.24880   -0.23738   -0.22323   -0.22323   -0.23738   -0.24880   -0.24220   -0.22889   -0.21689 
  -0.20225   -0.21215   -0.22889   -0.23975   -0.25457   -0.24072   -0.24072   -0.25457   -0.23975   -0.22889   -0.21215   -0.20225 
  -0.19655   -0.20225   -0.21689   -0.23551   -0.25390   -0.25161   -0.25161   -0.25390   -0.23551   -0.21689   -0.20225   -0.19655 
BAND:  16
  -0.19655   -0.20225   -0.21689   -0.23320   -0.22403   -0.23744   -0.23744   -0.22403   -0.23320   -0.21689   -0.20225   -0.19655 
  -0.20225   -0.20796   -0.22232   -0.23449   -0.22504   -0.22679   -0.22679   -0.22504   -0.23449   -0.22232   -0.20796   -0.20225 
  -0.21689   -0.22232   -0.23520   -0.23778   -0.22822   -0.21033   -0.21033   -0.22822   -0.23778   -0.23520   -0.22232   -0.21689 
  -0.23320   -0.23449   -0.23778   -0.23581   -0.22068   -0.20575   -0.20575   -0.22068   -0.23581   -0.23778   -0.23449   -0.23320 
  -0.22403   -0.22504   -0.22822   -0.22068   -0.20619   -0.19498   -0.19498   -0.20619   -0.22068   -0.22822   -0.22504   -0.22403 
  -0.23744   -0.22679   -0.21033   -0.20575   -0.19498   -0.18731   -0.18731   -0.19498   -0.20575   -0.21033   -0.22679   -0.23744 
  -0.23744   -0.22679   -0.21033   -0.20575   -0.19498   -0.18731   -0.18731   -0.19498   -0.20575   -0.21033   -0.22679   -0.23744 
  -0.22403   -0.22504   -0.22822   -0.22068   -0.20619   -0.19498   -0.19498   -0.20619   -0.22068   -0.22822   -0.22504   -0.22403 
  -0.23320   -0.23449   -0.23778   -0.23581   -0.22068   -0.20575   -0.20575   -0.22068   -0.23581   -0.23778   -0.23449   -0.23320 
  -0.21689   -0.22232   -0.23520   -0.23778   -0.22822   -0.21033   -0.21033   -0.22822   -0.23778   -0.23520   -0.22232   -0.21689 
  -0.20225   -0.20796   -0.22232   -0.23449   -0.22504   -0.22679   -0.22679   -0.22504   -0.23449   -0.22232   -0.20796   -0.20225 
  -0.19655   -0.20225   -0.21689   -0.23320   -0.22403   -0.23744   -0.23744   -0.22403   -0.23320   -0.21689   -0.20225   -0.19655 

  -0.20225   -0.20796   -0.22232   -0.23449   -0.22504   -0.22679   -0.22679   -0.22504   -0.23449   -0.22232   -0.20796   -0.20225 
  -0.20796   -0.20100   -0.21543   -0.23339   -0.22551   -0.22250   -0.22250   -0.22551   -0.23339   -0.21543   -0.20100   -0.20796 
  -0.22232   -0.21543   -0.22311   -0.23789   -0.22242   -0.21414   -0.21414   -0.22243   -0.23789   -0.22311   -0.21543   -0.22232 
  -0.23449   -0.23339   -0.23789   -0.22524   -0.20653   -0.20697   -0.20697   -0.20653   -0.22525   -0.23789   -0.23339   -0.23449 
  -0.22504   -0.22551   -0.22242   -0.20653   -0.19696   -0.20505   -0.20505   -0.19696   -0.20653   -0.22243   -0.22551   -0.22504 
  -0.22679   -0.22250   -0.21414   -0.20697   -0.20505   -0.21325   -0.21325   -0.20505   -0.20697   -0.21414   -0.22250   -0.22679 
  -0.22679   -0.22250   -0.21414   -0.20697   -0.20505   -0.21325   -0.21325   -0.20505   -0.20697   -0.21414   -0.22250   -0.22679 
  -0.22504   -0.22551   -0.22242   -0.20653   -0.19696   -0.20505   -0.20505   -0.19696   -0.20653   -0.22242   -0.22551   -0.22504 
  -0.23449   -0.23339   -0.23789   -0.22524   -0.20653   -0.20697   -0.20697   -0.20653   -0.22525   -0.23789   -0.23339   -0.23449 
  -0.22232   -0.21543   -0.22311   -0.23789   -0.22242   -0.21414   -0.21414   -0.22242   -0.23789   -0.22311   -0.21543   -0.22232 
  -0.20796   -0.20100   -0.21543   -0.23339   -0.22551   -0.22250   -0.22250   -0.22551   -0.23339   -0.21543   -0.20100   -0.20796 
  -0.20225   -0.20796   -0.22232   -0.23449   -0.22504   -0.22679   -0.22679   -0.22504   -0.23449   -0.22232   -0.20796   -0.20225 

  -0.21689   -0.22232   -0.23520   -0.23778   -0.22822   -0.21033   -0.21033   -0.22822   -0.23778   -0.23520   -0.22232   -0.21689 
  -0.22232   -0.21543   -0.22311   -0.23789   -0.22242   -0.21414   -0.21414   -0.22243   -0.23789   -0.22311   -0.21543   -0.22232 
  -0.23520   -0.22311   -0.21226   -0.22431   -0.21088   -0.21826   -0.21826   -0.21088   -0.22431   -0.21226   -0.22311   -0.23520 
  -0.23778   -0.23789   -0.22431   -0.21031   -0.21228   -0.21947   -0.21947   -0.21228   -0.21031   -0.22431   -0.23789   -0.23778 
  -0.22822   -0.22242   -0.21088   -0.21228   -0.21413   -0.22173   -0.22173   -0.21413   -0.21228   -0.21088   -0.22243   -0.22822 
  -0.21033   -0.21414   -0.21826   -0.21947   -0.22173   -0.22893   -0.22893   -0.22173   -0.21947   -0.21826   -0.21414   -0.21033 
  -0.21033   -0.21414   -0.21826   -0.21947   -0.22173   -0.22893   -0.22893   -0.22173   -0.21947   -0.21826   -0.21414   -0.21033 
  -0.22822   -0.22242   -0.21088   -0.21228   -0.21413   -0.22173   -0.22173   -0.21413   -0.21228   -0.21088   -0.22242   -0.22822 
  -0.23778   -0.23789   -0.22431   -0.21031   -0.21228   -0.21947   -0.21947   -0.21228   -0.21031   -0.22431   -0.23789   -0.23778 
  -0.23520   -0.22311   -0.21226   -0.22431   -0.21088   -0.21826   -0.21826   -0.21088   -0.22431   -0.21226   -0.22311   -0.23520 
  -0.22232   -0.21543   -0.22311   -0.23789   -0.22242   -0.21414   -0.21414   -0.22242   -0.23789   -0.22311   -0.21543   -0.22232 
  -0.21689   -0.22232   -0.23520   -0.23778   -0.22822   -0.21033   -0.21033   -0.22822   -0.23778   -0.23520   -0.22232   -0.21689 

  -0.23320   -0.23449   -0.23778   -0.23581   -0.22068   -0.20575   -0.20575   -0.22068   -0.23581   -0.23778   -0.23449   -0.23320 
  -0.23449   -0.23339   -0.23789   -0.22524   -0.20653   -0.20697   -0.20697   -0.20653   -0.22525   -0.23789   -0.23339   -0.23449 
  -0.23778   -0.23789   -0.22431   -0.21031   -0.21228   -0.21947   -0.21947   -0.21228   -0.21031   -0.22431   -0.23789   -0.23778 
  -0.23581   -0.22524   -0.21031   -0.22513   -0.22286   -0.22625   -0.22625   -0.22286   -0.22513   -0.21031   -0.22525   -0.23581 
  -0.22068   -0.20653   -0.21228   -0.22286   -0.22646   -0.22979   -0.22979   -0.22646   -0.22286   -0.21228   -0.20653   -0.22068 
  -0.20575   -0.20697   -0.21947   -0.22625   -0.22979   -0.23305   -0.23305   -0.22979   -0.22625   -0.21947   -0.20697   -0.20575 
  -0.20575   -0.20697   -0.21947   -0.22625   -0.22979   -0.23305   -0.23305   -0.22979   -0.22625   -0.21947   -0.20697   -0.20575 
  -0.22068   -0.20653   -0.21228   -0.22286   -0.22646   -0.22979   -0.22979   -0.22646   -0.22286   -0.21228   -0.20653   -0.22068 
  -0.23581   -0.22524   -0.21031   -0.22513   -0.22286   -0.22625   -0.22625   -0.22286   -0.22513   -0.21031   -0.22525   -0.23581 
  -0.23778   -0.23789   -0.22431   -0.21031   -0.21228   -0.21947   -0.21947   -0.21228   -0.21031   -0.22431   -0.23789   -0.23778 
  -0.23449   -0.23339   -0.23789   -0.22524   -0.20653   -0.20697   -0.20697   -0.20653   -0.22525   -0.23789   -0.23339   -0.23449 
  -0.23320   -0.23449   -0.23778   -0.23581   -0.22068   -0.20575   -0.20575   -0.22068   -0.23581   -0.23778   -0.23449   -0.23320 

  -0.22403   -0.22504   -0.22822   -0.22068   -0.20619   -0.19498   -0.19498   -0.20619   -0.22068   -0.22822   -0.22504   -0.22403 
  -0.22504   -0.22551   -0.22242   -0.20653   -0.19696   -0.20505   -0.20505   -0.19696   -0.20653   -0.22242   -0.22551   -0.22504 
  -0.22822   -0.22242   -0.21088   -0.21228   -0.21413   -0.22173   -0.22173   -0.21413   -0.21228   -0.21088   -0.22242   -0.22822 
  -0.22068   -0.20653   -0.21228   -0.22286   -0.22646   -0.22979   -0.22979   -0.22646   -0.22286   -0.21228   -0.20653   -0.22068 
  -0.20619   -0.19696   -0.21413   -0.22646   -0.23309   -0.23297   -0.23297   -0.23309   -0.22646   -0.21413   -0.19696   -0.20619 
  -0.19498   -0.20505   -0.22173   -0.22979   -0.23297   -0.23409   -0.23409   -0.23297   -0.22979   -0.22173   -0.20505   -0.19498 
  -0.19498   -0.20505   -0.22173   -0.22979   -0.23297   -0.23409   -0.23409   -0.23297   -0.22979   -0.22173   -0.20505   -0.19498 
  -0.20619   -0.19696   -0.21413   -0.22646   -0.23309   -0.23297   -0.23297   -0.23309   -0.22646   -0.21413   -0.19696   -0.20619 
  -0.22068   -0.20653   -0.21228   -0.22286   -0.22646   -0.22979   -0.22979   -0.22646   -0.22286   -0.21228   -0.20653   -0.22068 
  -0.22822   -0.22242   -0.21088   -0.21228   -0.21413   -0.22173   -0.22173   -0.21413   -0.21228   -0.21088   -0.22242   -0.22822 
  -0.22504   -0.22551   -0.22242   -0.20653   -0.19696   -0.20505   -0.20505   -0.19696   -0.20653   -0.22242   -0.22551   -0.22504 
  -0.22403   -0.22504   -0.22822   -0.22068   -0.20619   -0.19498   -0.19498   -0.20619   -0.22068   -0.22822   -0.22504   -0.22403 

  -0.23744   -0.22679   -0.21033   -0.20575   -0.19498   -0.18731   -0.18731   -0.19498   -0.20575   -0.21033   -0.22679   -0.23744 
  -0.22679   -0.22250   -0.21414   -0.20697   -0.20505   -0.21325   -0.21325   -0.20505   -0.20697   -0.21414   -0.22250   -0.22679 
  -0.21033   -0.21414   -0.21826   -0.21947   -0.22173   -0.22893   -0.22893   -0.22173   -0.21947   -0.21826   -0.21414   -0.21033 
  -0.20575   -0.20697   -0.21947   -0.22625   -0.22979   -0.23305   -0.23305   -0.22979   -0.22625   -0.21947   -0.20697   -0.20575 
  -0.19498   -0.20505   -0.22173   -0.22979   -0.23297   -0.23409   -0.23409   -0.23297   -0.22979   -0.22173   -0.20505   -0.19498 
  -0.18731   -0.21325   -0.22893   -0.23305   -0.23409   -0.23436   -0.23436   -0.23409   -0.23305   -0.22893   -0.21325   -0.18731 
  -0.18731   -0.21325   -0.22893   -0.23305   -0.23409   -0.23436   -0.23436   -0.23409   -0.23305   -0.22893   -0.21325   -0.18731 
  -0.19498   -0.20505   -0.22173   -0.22979   -0.23297   -0.23409   -0.23409   -0.23297   -0.22979   -0.22173   -0.20505   -0.19498 
  -0.20575   -0.20697   -0.21947   -0.22625   -0.22979   -0.23305   -0.23305   -0.22979   -0.22625   -0.21947   -0.20697   -0.20575 
  -0.21033   -0.21414   -0.21826   -0.21947   -0.22173   -0.22893   -0.22893   -0.22173   -0.21947   -0.21826   -0.21414   -0.21033 
  -0.22679   -0.22250   -0.21414   -0.20697   -0.20505   -0.21325   -0.21325   -0.20505   -0.20697   -0.21414   -0.22250   -0.22679 
  -0.23744   -0.22679   -0.21033   -0.20575   -0.19498   -0.18731   -0.18731   -0.19498   -0.20575   -0.21033   -0.22679   -0.23744 

  -0.23744   -0.22679   -0.21033   -0.20575   -0.19498   -0.18731   -0.18731   -0.19498   -0.20575   -0.21033   -0.22679   -0.23744 
  -0.22679   -0.22250   -0.21414   -0.20697   -0.20505   -0.21325   -0.21325   -0.20505   -0.20697   -0.21414   -0.22250   -0.22679 
  -0.21033   -0.21414   -0.21826   -0.21947   -0.22173   -0.22893   -0.22893   -0.22173   -0.21947   -0.21826   -0.21414   -0.21033 
  -0.20575   -0.20697   -0.21947   -0.22625   -0.22979   -0.23305   -0.23305   -0.22979   -0.22625   -0.21947   -0.20697   -0.20575 
  -0.19498   -0.20505   -0.22173   -0.22979   -0.23297   -0.23409   -0.23409   -0.23297   -0.22979   -0.22173   -0.20505   -0.19498 
  -0.18731   -0.21325   -0.22893   -0.23305   -0.23409   -0.23436   -0.23436   -0.23409   -0.23305   -0.22893   -0.21325   -0.18731 
  -0.18731   -0.21325   -0.22893   -0.23305   -0.23409   -0.23436   -0.23436   -0.23409   -0.23305   -0.22893   -0.21325   -0.18731 