BEGIN_INFO
Fermi Energy: -0.202788386382
END_INFO

BEGIN_BLOCK_BANDGRID_3D
comment_line
BEGIN_BANDGRID_3D_simple_example
2
12 12 12
0.0 0.0 0.0
   1.1943384158    0.0000000000    0.0000000000
   0.0000000000    1.1943384158    0.0000000000
   0.0000000000    0.0000000000    1.1943384158
BAND:  11
  -0.22233   -0.22251   -0.22282   -0.22245   -0.21955   -0.21255   -0.21255   -0.21955   -0.22245   -0.22282   -0.22251   -0.22233 
  -0.22251   -0.22306   -0.22443   -0.22581   -0.22724   -0.22338   -0.22338   -0.22724   -0.22581   -0.22443   -0.22306   -0.22251 
  -0.22282   -0.22443   -0.22807   -0.23195   -0.23611   -0.24104   -0.24104   -0.23611   -0.23195   -0.22807   -0.22443   -0.22282 
  -0.22245   -0.22581   -0.23195   -0.23598   -0.23732   -0.24614   -0.24614   -0.23732   -0.23598   -0.23195   -0.22581   -0.22245 
  -0.21955   -0.22724   -0.23611   -0.23732   -0.24039   -0.22238   -0.22238   -0.24039   -0.23732   -0.23611   -0.22724   -0.21955 
  -0.21255   -0.22338   -0.24104   -0.24614   -0.22238   -0.19726   -0.19726   -0.22238   -0.24614   -0.24104   -0.22338   -0.21255 
  -0.21255   -0.22338   -0.24104   -0.24613   -0.22238   -0.19726   -0.19726   -0.22238   -0.24614   -0.24104   -0.22338   -0.21255 
  -0.21955   -0.22724   -0.23611   -0.23732   -0.24039   -0.22238   -0.22238   -0.24039   -0.23732   -0.23611   -0.22724   -0.21955 
  -0.22245   -0.22581   -0.23195   -0.23598   -0.23732   -0.24614   -0.24614   -0.23732   -0.23598   -0.23195   -0.22581   -0.22245 
  -0.22282   -0.22443   -0.22807   -0.23195   -0.23611   -0.24104   -0.24104   -0.23611   -0.23195   -0.22807   -0.22443   -0.22282 
  -0.22251   -0.22306   -0.22443   -0.22581   -0.22724   -0.22338   -0.22338   -0.22724   -0.22581   -0.22443   -0.22306   -0.22251 
  -0.22233   -0.22251   -0.22282   -0.22245   -0.21955   -0.21255   -0.21255   -0.21955   -0.22245   -0.22282   -0.22251   -0.22233 

  -0.22251   -0.22306   -0.22443   -0.22581   -0.22724   -0.22338   -0.22338   -0.22724   -0.22581   -0.22443   -0.22306   -0.22251 
  -0.22306   -0.22728   -0.22934   -0.23221   -0.23313   -0.22746   -0.22746   -0.23313   -0.23221   -0.22934   -0.22728   -0.22306 
  -0.22443   -0.22934   -0.23412   -0.23845   -0.24137   -0.23975   -0.23975   -0.24137   -0.23845   -0.23412   -0.22934   -0.22443 
  -0.22581   -0.23221   -0.23845   -0.24279   -0.24354   -0.24451   -0.24451   -0.24354   -0.24279   -0.23845   -0.23221   -0.22581 
  -0.22724   -0.23313   -0.24137   -0.24354   -0.24349   -0.22811   -0.22811   -0.24350   -0.24354   -0.24137   -0.23313   -0.22724 
  -0.22338   -0.22746   -0.23975   -0.24451   -0.22811   -0.20781   -0.20781   -0.22811   -0.24451   -0.23975   -0.22746   -0.22338 
  -0.22338   -0.22746   -0.23975   -0.24451   -0.22811   -0.20781   -0.20781   -0.22811   -0.24451   -0.23975   -0.22746   -0.22338 
  -0.22724   -0.23313   -0.24137   -0.24354   -0.24349   -0.22811   -0.22811   -0.24350   -0.24354   -0.24137   -0.23313   -0.22724 
  -0.22581   -0.23221   -0.23845   -0.24279   -0.24354   -0.24451   -0.24451   -0.24354   -0.24279   -0.23845   -0.23221   -0.22581 
  -0.22443   -0.22934   -0.23412   -0.23845   -0.24137   -0.23975   -0.23975   -0.24137   -0.23845   -0.23412   -0.22934   -0.22443 
  -0.22306   -0.22728   -0.22934   -0.23221   -0.23313   -0.22746   -0.22746   -0.23313   -0.23221   -0.22934   -0.22728   -0.22306 
  -0.22251   -0.22306   -0.22443   -0.22581   -0.22724   -0.22338   -0.22338   -0.22724   -0.22581   -0.22443   -0.22306   -0.22251 

  -0.22282   -0.22443   -0.22807   -0.23195   -0.23611   -0.24104   -0.24104   -0.23611   -0.23195   -0.22807   -0.22443   -0.22282 
  -0.22443   -0.22934   -0.23412   -0.23845   -0.24137   -0.23975   -0.23975   -0.24137   -0.23845   -0.23412   -0.22934   -0.22443 
  -0.22807   -0.23412   -0.24402   -0.24991   -0.25128   -0.24672   -0.24672   -0.25128   -0.24991   -0.24402   -0.23412   -0.22807 
  -0.23195   -0.23845   -0.24991   -0.25557   -0.25715   -0.25293   -0.25293   -0.25715   -0.25557   -0.24991   -0.23845   -0.23195 
  -0.23611   -0.24137   -0.25128   -0.25715   -0.25382   -0.24451   -0.24451   -0.25382   -0.25715   -0.25128   -0.24137   -0.23611 
  -0.24104   -0.23975   -0.24672   -0.25293   -0.24451   -0.23054   -0.23054   -0.24451   -0.25293   -0.24672   -0.23975   -0.24104 
  -0.24104   -0.23975   -0.24672   -0.25293   -0.24451   -0.23054   -0.23054   -0.24451   -0.25293   -0.24672   -0.23975   -0.24104 
  -0.23611   -0.24137   -0.25128   -0.25715   -0.25382   -0.24451   -0.24451   -0.25382   -0.25715   -0.25128   -0.24137   -0.23611 
  -0.23195   -0.23845   -0.24991   -0.25557   -0.25715   -0.25293   -0.25293   -0.25715   -0.25557   -0.24991   -0.23845   -0.23195 
  -0.22807   -0.23412   -0.24402   -0.24991   -0.25128   -0.24672   -0.24672   -0.25128   -0.24991   -0.24402   -0.23412   -0.22807 
  -0.22443   -0.22934   -0.23412   -0.23845   -0.24137   -0.23975   -0.23975   -0.24137   -0.23845   -0.23412   -0.22934   -0.22443 
  -0.22282   -0.22443   -0.22807   -0.23195   -0.23611   -0.24104   -0.24104   -0.23611   -0.23195   -0.22807   -0.22443   -0.22282 

  -0.22245   -0.22581   -0.23195   -0.23598   -0.23732   -0.24614   -0.24614   -0.23732   -0.23598   -0.23195   -0.22581   -0.22245 
  -0.22581   -0.23221   -0.23845   -0.24279   -0.24354   -0.24451   -0.24451   -0.24354   -0.24279   -0.23845   -0.23221   -0.22581 
  -0.23195   -0.23845   -0.24991   -0.25557   -0.25715   -0.25293   -0.25293   -0.25715   -0.25557   -0.24991   -0.23845   -0.23195 
  -0.23598   -0.24279   -0.25557   -0.26562   -0.26836   -0.26300   -0.26300   -0.26836   -0.26562   -0.25557   -0.24279   -0.23598 
  -0.23732   -0.24354   -0.25715   -0.26836   -0.27039   -0.26253   -0.26253   -0.27039   -0.26836   -0.25715   -0.24354   -0.23732 
  -0.24614   -0.24451   -0.25293   -0.26300   -0.26253   -0.25253   -0.25253   -0.26253   -0.26300   -0.25293   -0.24451   -0.24614 
  -0.24614   -0.24451   -0.25293   -0.26300   -0.26253   -0.25253   -0.25253   -0.26253   -0.26300   -0.25293   -0.24451   -0.24614 
  -0.23732   -0.24354   -0.25715   -0.26836   -0.27039   -0.26253   -0.26253   -0.27039   -0.26836   -0.25715   -0.24354   -0.23732 
  -0.23598   -0.24279   -0.25557   -0.26562   -0.26836   -0.26300   -0.26300   -0.26836   -0.26562   -0.25557   -0.24279   -0.23598 
  -0.23195   -0.23845   -0.24991   -0.25557   -0.25715   -0.25293   -0.25293   -0.25715   -0.25557   -0.24991   -0.23845   -0.23195 
  -0.22581   -0.23221   -0.23845   -0.24279   -0.24354   -0.24451   -0.24451   -0.24354   -0.24279   -0.23845   -0.23221   -0.22581 
  -0.22245   -0.22581   -0.23195   -0.23598   -0.23732   -0.24614   -0.24614   -0.23732   -0.23598   -0.23195   -0.22581   -0.22245 

  -0.21955   -0.22724   -0.23611   -0.23732   -0.24039   -0.22238   -0.22238   -0.24039   -0.23732   -0.23611   -0.22724   -0.21955 
  -0.22724   -0.23313   -0.24137   -0.24354   -0.24349   -0.22811   -0.22811   -0.24350   -0.24354   -0.24137   -0.23313   -0.22724 
  -0.23611   -0.24137   -0.25128   -0.25715   -0.25382   -0.24451   -0.24451   -0.25382   -0.25715   -0.25128   -0.24137   -0.23611 
  -0.23732   -0.24354   -0.25715   -0.26836   -0.27039   -0.26253   -0.26253   -0.27039   -0.26836   -0.25715   -0.24354   -0.23732 
  -0.24039   -0.24350   -0.25382   -0.27039   -0.27175   -0.27420   -0.27420   -0.27175   -0.27039   -0.25382   -0.24349   -0.24039 
  -0.22238   -0.22811   -0.24451   -0.26253   -0.27420   -0.26946   -0.26946   -0.27420   -0.26253   -0.24451   -0.22811   -0.22238 
  -0.22238   -0.22811   -0.24451   -0.26253   -0.27420   -0.26946   -0.26946   -0.27420   -0.26253   -0.24451   -0.22811   -0.22238 
  -0.24039   -0.24349   -0.25382   -0.27039   -0.27175   -0.27420   -0.27420   -0.27175   -0.27039   -0.25382   -0.24349   -0.24039 
  -0.23732   -0.24354   -0.25715   -0.26836   -0.27039   -0.26253   -0.26253   -0.27039   -0.26836   -0.25715   -0.24354   -0.23732 
  -0.23611   -0.24137   -0.25128   -0.25715   -0.25382   -0.24451   -0.24451   -0.25382   -0.25715   -0.25128   -0.24137   -0.23611 
  -0.22724   -0.23313   -0.24137   -0.24354   -0.24349   -0.22811   -0.22811   -0.24350   -0.24354   -0.24137   -0.23313   -0.22724 
  -0.21955   -0.22724   -0.23611   -0.23732   -0.24039   -0.22238   -0.22238   -0.24039   -0.23732   -0.23611   -0.22724   -0.21955 

  -0.21255   -0.22338   -0.24104   -0.24613   -0.22238   -0.19726   -0.19726   -0.22238   -0.24614   -0.24104   -0.22338   -0.21255 
  -0.22338   -0.22746   -0.23975   -0.24451   -0.22811   -0.20781   -0.20781   -0.22811   -0.24451   -0.23975   -0.22746   -0.22338 
  -0.24104   -0.23975   -0.24672   -0.25293   -0.24451   -0.23054   -0.23054   -0.24451   -0.25293   -0.24672   -0.23975   -0.24104 
  -0.24614   -0.24451   -0.25293   -0.26300   -0.26253   -0.25253   -0.25253   -0.26253   -0.26300   -0.25293   -0.24451   -0.24614 
  -0.22238   -0.22811   -0.24451   -0.26253   -0.27420   -0.26946   -0.26946   -0.27420   -0.26253   -0.24451   -0.22811   -0.22238 
  -0.19726   -0.20781   -0.23054   -0.25253   -0.26946   -0.27754   -0.27754   -0.26946   -0.25253   -0.23054   -0.20781   -0.19726 
  -0.19726   -0.20781   -0.23054   -0.25253   -0.26946   -0.27754   -0.27754   -0.26946   -0.25253   -0.23054   -0.20781   -0.19726 
  -0.22238   -0.22811   -0.24451   -0.26253   -0.27420   -0.26946   -0.26946   -0.27420   -0.26253   -0.24451   -0.22811   -0.22238 
  -0.24614   -0.24451   -0.25293   -0.26300   -0.26253   -0.25253   -0.25253   -0.26253   -0.26300   -0.25293   -0.24451   -0.24614 
  -0.24104   -0.23975   -0.24672   -0.25293   -0.24451   -0.23054   -0.23054   -0.24451   -0.25293   -0.24672   -0.23975   -0.24104 
  -0.22338   -0.22746   -0.23975   -0.24451   -0.22811   -0.20781   -0.20781   -0.22811   -0.24451   -0.23975   -0.22746   -0.22338 
  -0.21255   -0.22338   -0.24104   -0.24613   -0.22238   -0.19726   -0.19726   -0.22238   -0.24614   -0.24104   -0.22338   -0.21255 

  -0.21255   -0.22338   -0.24104   -0.24614   -0.22238   -0.19726   -0.19726   -0.22238   -0.24614   -0.24104   -0.22338   -0.21255 
  -0.22338   -0.22746   -0.23975   -0.24451   -0.22811   -0.20781   -0.20781   -0.22811   -0.24451   -0.23975   -0.22746   -0.22338 
  -0.24104   -0.23975   -0.24672   -0.25293   -0.24451   -0.23054   -0.23054   -0.24451   -0.25293   -0.24672   -0.23975   -0.24104 
  -0.24614   -0.24451   -0.25293   -0.26300   -0.26253   -0.25253   -0.25253   -0.26253   -0.26300   -0.25293   -0.24451   -0.24614 
  -0.22238   -0.22811   -0.24451   -0.26253   -0.27420   -0.26946   -0.26946   -0.27420   -0.26253   -0.24451   -0.22811   -0.22238 
  -0.19726   -0.20781   -0.23054   -0.25253   -0.26946   -0.27754   -0.27754   -0.26946   -0.25253   -0.23054   -0.20781   -0.19726 
  -0.19726   -0.20781   -0.23054   -0.25253   -0.26946   -0.27754   -0.27754   -0.26946   -0.25253   -0.23054   -0.20781   -0.19726 
  -0.22238   -0.22811   -0.24451   -0.26253   -0.27420   -0.26946   -0.26946   -0.27420   -0.26253   -0.24451   -0.22811   -0.22238 
  -0.24614   -0.24451   -0.25293   -0.26300   -0.26253   -0.25253   -0.25253   -0.26253   -0.26300   -0.25293   -0.24451   -0.24614 
  -0.24104   -0.23975   -0.24672   -0.25293   -0.24451   -0.23054   -0.23054   -0.24451   -0.25293   -0.24672   -0.23975   -0.24104 
  -0.22338   -0.22746   -0.23975   -0.24451   -0.22811   -0.20781   -0.20781   -0.22811   -0.24451   -0.23975   -0.22746   -0.22338 
  -0.21255   -0.22338   -0.24104   -0.24614   -0.22238   -0.19726   -0.19726   -0.22238   -0.24614   -0.24104   -0.22338   -0.21255 

  -0.21955   -0.22724   -0.23611   -0.23732   -0.24039   -0.22238   -0.22238   -0.24039   -0.23732   -0.23611   -0.22724   -0.21955 
  -0.22724   -0.23313   -0.24137   -0.24354   -0.24349   -0.22811   -0.22811   -0.24350   -0.24354   -0.24137   -0.23313   -0.22724 
  -0.23611   -0.24137   -0.25128   -0.25715   -0.25382   -0.24451   -0.24451   -0.25382   -0.25715   -0.25128   -0.24137   -0.23611 
  -0.23732   -0.24354   -0.25715   -0.26836   -0.27039   -0.26253   -0.26253   -0.27039   -0.26836   -0.25715   -0.24354   -0.23732 
  -0.24039   -0.24350   -0.25382   -0.27039   -0.27175   -0.27420   -0.27420   -0.27175   -0.27039   -0.25382   -0.24350   -0.24039 
  -0.22238   -0.22811   -0.24451   -0.26253   -0.27420   -0.26946   -0.26946   -0.27420   -0.26253   -0.24451   -0.22811   -0.22238 
  -0.22238   -0.22811   -0.24451   -0.26253   -0.27420   -0.26946   -0.26946   -0.27420   -0.26253   -0.24451   -0.22811   -0.22238 
  -0.24039   -0.24350   -0.25382   -0.27039   -0.27175   -0.27420   -0.27420   -0.27175   -0.27039   -0.25382   -0.24349   -0.24039 
  -0.23732   -0.24354   -0.25715   -0.26836   -0.27039   -0.26253   -0.26253   -0.27039   -0.26836   -0.25715   -0.24354   -0.23732 
  -0.23611   -0.24137   -0.25128   -0.25715   -0.25382   -0.24451   -0.24451   -0.25382   -0.25715   -0.25128   -0.24137   -0.23611 
  -0.22724   -0.23313   -0.24137   -0.24354   -0.24349   -0.22811   -0.22811   -0.24350   -0.24354   -0.24137   -0.23313   -0.22724 
  -0.21955   -0.22724   -0.23611   -0.23732   -0.24039   -0.22238   -0.22238   -0.24039   -0.23732   -0.23611   -0.22724   -0.21955 

  -0.22245   -0.22581   -0.23195   -0.23598   -0.23732   -0.24614   -0.24614   -0.23732   -0.23598   -0.23195   -0.22581   -0.22245 
  -0.22581   -0.23221   -0.23845   -0.24279   -0.24354   -0.24451   -0.24451   -0.24354   -0.24279   -0.23845   -0.23221   -0.22581 
  -0.23195   -0.23845   -0.24991   -0.25557   -0.25715   -0.25293   -0.25293   -0.25715   -0.25557   -0.24991   -0.23845   -0.23195 
  -0.23598   -0.24279   -0.25557   -0.26562   -0.26836   -0.26300   -0.26300   -0.26836   -0.26562   -0.25557   -0.24279   -0.23598 
  -0.23732   -0.24354   -0.25715   -0.26836   -0.27039   -0.26253   -0.26253   -0.27039   -0.26836   -0.25715   -0.24354   -0.23732 
  -0.24614   -0.24451   -0.25293   -0.26300   -0.26253   -0.25253   -0.25253   -0.26253   -0.26300   -0.25293   -0.24451   -0.24614 
  -0.24614   -0.24451   -0.25293   -0.26300   -0.26253   -0.25253   -0.25253   -0.26253   -0.26300   -0.25293   -0.24451   -0.24614 
  -0.23732   -0.24354   -0.25715   -0.26836   -0.27039   -0.26253   -0.26253   -0.27039   -0.26836   -0.25715   -0.24354   -0.23732 
  -0.23598   -0.24279   -0.25557   -0.26562   -0.26836   -0.26300   -0.26300   -0.26836   -0.26562   -0.25557   -0.24279   -0.23598 
  -0.23195   -0.23845   -0.24991   -0.25557   -0.25715   -0.25293   -0.25293   -0.25715   -0.25557   -0.24991   -0.23845   -0.23195 
  -0.22581   -0.23221   -0.23845   -0.24279   -0.24354   -0.24451   -0.24451   -0.24354   -0.24279   -0.23845   -0.23221   -0.22581 
  -0.22245   -0.22581   -0.23195   -0.23598   -0.23732   -0.24614   -0.24614   -0.23732   -0.23598   -0.23195   -0.22581   -0.22245 

  -0.22282   -0.22443   -0.22807   -0.23195   -0.23611   -0.24104   -0.24104   -0.23611   -0.23195   -0.22807   -0.22443   -0.22282 
  -0.22443   -0.22934   -0.23412   -0.23845   -0.24137   -0.23975   -0.23975   -0.24137   -0.23845   -0.23412   -0.22934   -0.22443 
  -0.22807   -0.23412   -0.24402   -0.24991   -0.25128   -0.24672   -0.24672   -0.25128   -0.24991   -0.24402   -0.23412   -0.22807 
  -0.23195   -0.23845   -0.24991   -0.25557   -0.25715   -0.25293   -0.25293   -0.25715   -0.25557   -0.24991   -0.23845   -0.23195 
  -0.23611   -0.24137   -0.25128   -0.25715   -0.25382   -0.24451   -0.24451   -0.25382   -0.25715   -0.25128   -0.24137   -0.23611 
  -0.24104   -0.23975   -0.24672   -0.25293   -0.24451   -0.23054   -0.23054   -0.24451   -0.25293   -0.24672   -0.23975   -0.24104 
  -0.24104   -0.23975   -0.24672   -0.25293   -0.24451   -0.23054   -0.23054   -0.24451   -0.25293   -0.24672   -0.23975   -0.24104 
  -0.23611   -0.24137   -0.25128   -0.25715   -0.25382   -0.24451   -0.24451   -0.25382   -0.25715   -0.25128   -0.24137   -0.23611 
  -0.23195   -0.23845   -0.24991   -0.25557   -0.25715   -0.25293   -0.25293   -0.25715   -0.25557   -0.24991   -0.23845   -0.23195 
  -0.22807   -0.23412   -0.24402   -0.24991   -0.25128   -0.24672   -0.24672   -0.25128   -0.24991   -0.24402   -0.23412   -0.22807 
  -0.22443   -0.22934   -0.23412   -0.23845   -0.24137   -0.23975   -0.23975   -0.24137   -0.23845   -0.23412   -0.22934   -0.22443 
  -0.22282   -0.22443   -0.22807   -0.23195   -0.23611   -0.24104   -0.24104   -0.23611   -0.23195   -0.22807   -0.22443   -0.22282 

  -0.22251   -0.22306   -0.22443   -0.22581   -0.22724   -0.22338   -0.22338   -0.22724   -0.22581   -0.22443   -0.22306   -0.22251 
  -0.22306   -0.22728   -0.22934   -0.23221   -0.23313   -0.22746   -0.22746   -0.23313   -0.23221   -0.22934   -0.22728   -0.22306 
  -0.22443   -0.22934   -0.23412   -0.23845   -0.24137   -0.23975   -0.23975   -0.24137   -0.23845   -0.23412   -0.22934   -0.22443 
  -0.22581   -0.23221   -0.23845   -0.24279   -0.24354   -0.24451   -0.24451   -0.24354   -0.24279   -0.23845   -0.23221   -0.22581 
  -0.22724   -0.23313   -0.24137   -0.24354   -0.24349   -0.22811   -0.22811   -0.24350   -0.24354   -0.24137   -0.23313   -0.22724 
  -0.22338   -0.22746   -0.23975   -0.24451   -0.22811   -0.20781   -0.20781   -0.22811   -0.24451   -0.23975   -0.22746   -0.22338 
  -0.22338   -0.22746   -0.23975   -0.24451   -0.22811   -0.20781   -0.20781   -0.22811   -0.24451   -0.23975   -0.22746   -0.22338 
  -0.22724   -0.23313   -0.24137   -0.24354   -0.24349   -0.22811   -0.22811   -0.24350   -0.24354   -0.24137   -0.23313   -0.22724 
  -0.22581   -0.23221   -0.23845   -0.24279   -0.24354   -0.24451   -0.24451   -0.24354   -0.24279   -0.23845   -0.23221   -0.22581 
  -0.22443   -0.22934   -0.23412   -0.23845   -0.24137   -0.23975   -0.23975   -0.24137   -0.23845   -0.23412   -0.22934   -0.22443 
  -0.22306   -0.22728   -0.22934   -0.23221   -0.23313   -0.22746   -0.22746   -0.23313   -0.23221   -0.22934   -0.22728   -0.22306 
  -0.22251   -0.22306   -0.22443   -0.22581   -0.22724   -0.22338   -0.22338   -0.22724   -0.22581   -0.22443   -0.22306   -0.22251 

  -0.22233   -0.22251   -0.22282   -0.22245   -0.21955   -0.21255   -0.21255   -0.21955   -0.22245   -0.22282   -0.22251   -0.22233 
  -0.22251   -0.22306   -0.22443   -0.22581   -0.22724   -0.22338   -0.22338   -0.22724   -0.22581   -0.22443   -0.22306   -0.22251 
  -0.22282   -0.22443   -0.22807   -0.23195   -0.23611   -0.24104   -0.24104   -0.23611   -0.23195   -0.22807   -0.22443   -0.22282 
  -0.22245   -0.22581   -0.23195   -0.23598   -0.23732   -0.24614   -0.24614   -0.23732   -0.23598   -0.23195   -0.22581   -0.22245 
  -0.21955   -0.22724   -0.23611   -0.23732   -0.24039   -0.22238   -0.22238   -0.24039   -0.23732   -0.23611   -0.22724   -0.21955 
  -0.21255   -0.22338   -0.24104   -0.24614   -0.22238   -0.19726   -0.19726   -0.22238   -0.24614   -0.24104   -0.22338   -0.21255 
  -0.21255   -0.22338   -0.24104   -0.24613   -0.22238   -0.19726   -0.19726   -0.22238   -0.24614   -0.24104   -0.22338   -0.21255 
  -0.21955   -0.22724   -0.23611   -0.23732   -0.24039   -0.22238   -0.22238   -0.24039   -0.23732   -0.23611   -0.22724   -0.21955 
  -0.22245   -0.22581   -0.23195   -0.23598   -0.23732   -0.24614   -0.24614   -0.23732   -0.23598   -0.23195   -0.22581   -0.22245 
  -0.22282   -0.22443   -0.22807   -0.23195   -0.23611   -0.24104   -0.24104   -0.23611   -0.23195   -0.22807   -0.22443   -0.22282 
  -0.22251   -0.22306   -0.22443   -0.22581   -0.22724   -0.22338   -0.22338   -0.22724   -0.22581   -0.22443   -0.22306   -0.22251 
  -0.22233   -0.22251   -0.22282   -0.22245   -0.21955   -0.21255   -0.21255   -0.21955   -0.22245   -0.22282   -0.22251   -0.22233 
BAND:  12
  -0.22233   -0.22014   -0.21371   -0.20355   -0.19265   -0.21255   -0.21255   -0.19265   -0.20355   -0.21371   -0.22014   -0.22233 
  -0.22014   -0.21407   -0.20477   -0.19311   -0.19621   -0.21225   -0.21225   -0.19621   -0.19311   -0.20477   -0.21407   -0.22014 
  -0.21371   -0.20477   -0.19116   -0.19821   -0.21735   -0.23191   -0.23191   -0.21735   -0.19821   -0.19116   -0.20477   -0.21371 
  -0.20355   -0.19311   -0.19821   -0.21958   -0.23685   -0.23821   -0.23821   -0.23685   -0.21958   -0.19821   -0.19311   -0.20355 
  -0.19265   -0.19621   -0.21735   -0.23685   -0.22769   -0.21748   -0.21748   -0.22769   -0.23685   -0.21735   -0.19621   -0.19265 
  -0.21255   -0.21225   -0.23191   -0.23821   -0.21748   -0.19363   -0.19363   -0.21748   -0.23821   -0.23191   -0.21225   -0.21255 
  -0.21255   -0.21225   -0.23191   -0.23821   -0.21748   -0.19363   -0.19363   -0.21748   -0.23821   -0.23191   -0.21225   -0.21255 
  -0.19265   -0.19621   -0.21735   -0.23685   -0.22769   -0.21748   -0.21748   -0.22769   -0.23685   -0.21735   -0.19621   -0.19265 
  -0.20355   -0.19311   -0.19822   -0.21958   -0.23685   -0.23821   -0.23821   -0.23685   -0.21958   -0.19821   -0.19311   -0.20355 
  -0.21371   -0.20477   -0.19116   -0.19822   -0.21735   -0.23191   -0.23191   -0.21735   -0.19821   -0.19116   -0.20477   -0.21371 
  -0.22014   -0.21407   -0.20477   -0.19311   -0.19621   -0.21225   -0.21225   -0.19621   -0.19311   -0.20477   -0.21407   -0.22014 
  -0.22233   -0.22014   -0.21371   -0.20355   -0.19265   -0.21255   -0.21255   -0.19265   -0.20355   -0.21371   -0.22014   -0.22233 

  -0.22014   -0.21407   -0.20477   -0.19311   -0.19621   -0.21225   -0.21225   -0.19621   -0.19311   -0.20477   -0.21407   -0.22014 
  -0.21407   -0.20799   -0.19724   -0.19312   -0.20820   -0.21876   -0.21876   -0.20820   -0.19312   -0.19724   -0.20799   -0.21407 
  -0.20477   -0.19724   -0.19543   -0.21430   -0.22616   -0.23388   -0.23388   -0.22616   -0.21430   -0.19543   -0.19724   -0.20477 
  -0.19311   -0.19312   -0.21430   -0.23173   -0.24298   -0.24249   -0.24249   -0.24298   -0.23173   -0.21430   -0.19312   -0.19311 
  -0.19621   -0.20820   -0.22616   -0.24298   -0.23635   -0.22621   -0.22621   -0.23635   -0.24298   -0.22616   -0.20820   -0.19621 
  -0.21225   -0.21876   -0.23388   -0.24249   -0.22621   -0.20674   -0.20674   -0.22621   -0.24249   -0.23388   -0.21876   -0.21225 
  -0.21225   -0.21876   -0.23388   -0.24249   -0.22621   -0.20674   -0.20674   -0.22621   -0.24249   -0.23388   -0.21876   -0.21225 
  -0.19621   -0.20820   -0.22616   -0.24298   -0.23635   -0.22621   -0.22621   -0.23635   -0.24298   -0.22616   -0.20820   -0.19621 
  -0.19311   -0.19312   -0.21430   -0.23173   -0.24298   -0.24249   -0.24249   -0.24298   -0.23173   -0.21430   -0.19312   -0.19311 
  -0.20477   -0.19724   -0.19543   -0.21430   -0.22616   -0.23388   -0.23388   -0.22616   -0.21430   -0.19543   -0.19724   -0.20477 
  -0.21407   -0.20799   -0.19724   -0.19312   -0.20820   -0.21876   -0.21876   -0.20820   -0.19312   -0.19724   -0.20799   -0.21407 
  -0.22014   -0.21407   -0.20477   -0.19311   -0.19621   -0.21225   -0.21225   -0.19621   -0.19311   -0.20477   -0.21407   -0.22014 

  -0.21371   -0.20477   -0.19116   -0.19822   -0.21735   -0.23191   -0.23191   -0.21735   -0.19821   -0.19116   -0.20477   -0.21371 
  -0.20477   -0.19724   -0.19543   -0.21430   -0.22616   -0.23388   -0.23388   -0.22616   -0.21430   -0.19543   -0.19724   -0.20477 
  -0.19116   -0.19543   -0.21969   -0.23701   -0.24099   -0.24176   -0.24176   -0.24099   -0.23701   -0.21969   -0.19543   -0.19116 
  -0.19821   -0.21430   -0.23701   -0.25330   -0.25354   -0.24961   -0.24961   -0.25354   -0.25330   -0.23701   -0.21430   -0.19821 
  -0.21735   -0.22616   -0.24099   -0.25354   -0.25170   -0.24187   -0.24187   -0.25170   -0.25354   -0.24099   -0.22616   -0.21735 
  -0.23191   -0.23388   -0.24176   -0.24961   -0.24187   -0.22912   -0.22912   -0.24187   -0.24961   -0.24176   -0.23388   -0.23191 
  -0.23191   -0.23388   -0.24176   -0.24961   -0.24187   -0.22912   -0.22912   -0.24187   -0.24961   -0.24176   -0.23388   -0.23191 
  -0.21735   -0.22616   -0.24099   -0.25354   -0.25170   -0.24187   -0.24187   -0.25170   -0.25354   -0.24099   -0.22616   -0.21735 
  -0.19821   -0.21430   -0.23701   -0.25330   -0.25354   -0.24961   -0.24961   -0.25354   -0.25330   -0.23701   -0.21430   -0.19821 
  -0.19116   -0.19543   -0.21969   -0.23701   -0.24099   -0.24176   -0.24176   -0.24099   -0.23701   -0.21969   -0.19543   -0.19116 
  -0.20477   -0.19724   -0.19543   -0.21430   -0.22616   -0.23388   -0.23388   -0.22616   -0.21430   -0.19543   -0.19724   -0.20477 
  -0.21371   -0.20477   -0.19116   -0.19822   -0.21735   -0.23191   -0.23191   -0.21735   -0.19821   -0.19116   -0.20477   -0.21371 

  -0.20355   -0.19311   -0.19822   -0.21958   -0.23685   -0.23821   -0.23821   -0.23685   -0.21958   -0.19821   -0.19311   -0.20355 
  -0.19311   -0.19312   -0.21430   -0.23173   -0.24298   -0.24249   -0.24249   -0.24298   -0.23173   -0.21430   -0.19312   -0.19311 
  -0.19821   -0.21430   -0.23701   -0.25330   -0.25354   -0.24961   -0.24961   -0.25354   -0.25330   -0.23701   -0.21430   -0.19821 
  -0.21958   -0.23173   -0.25330   -0.26562   -0.26234   -0.25761   -0.25761   -0.26235   -0.26562   -0.25330   -0.23173   -0.21958 
  -0.23685   -0.24298   -0.25354   -0.26235   -0.26214   -0.25711   -0.25711   -0.26214   -0.26235   -0.25354   -0.24298   -0.23685 
  -0.23821   -0.24249   -0.24961   -0.25761   -0.25711   -0.25001   -0.25001   -0.25711   -0.25761   -0.24961   -0.24249   -0.23821 
  -0.23821   -0.24249   -0.24961   -0.25761   -0.25711   -0.25001   -0.25001   -0.25711   -0.25761   -0.24961   -0.24249   -0.23821 
  -0.23685   -0.24298   -0.25354   -0.26235   -0.26214   -0.25711   -0.25711   -0.26214   -0.26234   -0.25354   -0.24298   -0.23685 
  -0.21958   -0.23173   -0.25330   -0.26562   -0.26235   -0.25761   -0.25761   -0.26235   -0.26562   -0.25330   -0.23173   -0.21958 
  -0.19821   -0.21430   -0.23701   -0.25330   -0.25354   -0.24961   -0.24961   -0.25354   -0.25330   -0.23701   -0.21430   -0.19821 
  -0.19311   -0.19312   -0.21430   -0.23173   -0.24298   -0.24249   -0.24249   -0.24298   -0.23173   -0.21430   -0.19312   -0.19311 
  -0.20355   -0.19311   -0.19822   -0.21958   -0.23685   -0.23821   -0.23821   -0.23685   -0.21958   -0.19821   -0.19311   -0.20355 

  -0.19265   -0.19621   -0.21735   -0.23685   -0.22769   -0.21748   -0.21748   -0.22769   -0.23685   -0.21735   -0.19621   -0.19265 
  -0.19621   -0.20820   -0.22616   -0.24298   -0.23635   -0.22621   -0.22621   -0.23635   -0.24298   -0.22616   -0.20820   -0.19621 
  -0.21735   -0.22616   -0.24099   -0.25354   -0.25170   -0.24187   -0.24187   -0.25170   -0.25354   -0.24099   -0.22616   -0.21735 
  -0.23685   -0.24298   -0.25354   -0.26235   -0.26214   -0.25711   -0.25711   -0.26214   -0.26234   -0.25354   -0.24298   -0.23685 
  -0.22769   -0.23635   -0.25170   -0.26214   -0.27175   -0.26761   -0.26761   -0.27175   -0.26214   -0.25170   -0.23635   -0.22769 
  -0.21748   -0.22621   -0.24187   -0.25711   -0.26761   -0.26651   -0.26651   -0.26761   -0.25711   -0.24187   -0.22621   -0.21748 
  -0.21748   -0.22621   -0.24187   -0.25711   -0.26761   -0.26651   -0.26651   -0.26761   -0.25711   -0.24187   -0.22621   -0.21748 
  -0.22769   -0.23635   -0.25170   -0.26214   -0.27175   -0.26761   -0.26761   -0.27175   -0.26214   -0.25170   -0.23635   -0.22769 
  -0.23685   -0.24298   -0.25354   -0.26235   -0.26214   -0.25711   -0.25711   -0.26214   -0.26234   -0.25354   -0.24298   -0.23685 
  -0.21735   -0.22616   -0.24099   -0.25354   -0.25170   -0.24187   -0.24187   -0.25170   -0.25354   -0.24099   -0.22616   -0.21735 
  -0.19621   -0.20820   -0.22616   -0.24298   -0.23635   -0.22621   -0.22621   -0.23635   -0.24298   -0.22616   -0.20820   -0.19621 
  -0.19265   -0.19621   -0.21735   -0.23685   -0.22769   -0.21748   -0.21748   -0.22769   -0.23685   -0.21735   -0.19621   -0.19265 

  -0.21255   -0.21225   -0.23191   -0.23821   -0.21748   -0.19363   -0.19363   -0.21748   -0.23821   -0.23191   -0.21225   -0.21255 
  -0.21225   -0.21876   -0.23388   -0.24249   -0.22621   -0.20674   -0.20674   -0.22621   -0.24249   -0.23388   -0.21876   -0.21225 
  -0.23191   -0.23388   -0.24176   -0.24961   -0.24187   -0.22912   -0.22912   -0.24187   -0.24961   -0.24176   -0.23388   -0.23191 
  -0.23821   -0.24249   -0.24961   -0.25761   -0.25711   -0.25001   -0.25001   -0.25711   -0.25761   -0.24961   -0.24249   -0.23821 
  -0.21748   -0.22621   -0.24187   -0.25711   -0.26761   -0.26651   -0.26651   -0.26761   -0.25711   -0.24187   -0.22621   -0.21748 
  -0.19363   -0.20674   -0.22912   -0.25001   -0.26651   -0.27754   -0.27754   -0.26651   -0.25001   -0.22912   -0.20674   -0.19363 
  -0.19363   -0.20674   -0.22912   -0.25001   -0.26651   -0.27754   -0.27754   -0.26651   -0.25001   -0.22912   -0.20674   -0.19363 
  -0.21748   -0.22621   -0.24187   -0.25711   -0.26761   -0.26651   -0.26651   -0.26761   -0.25711   -0.24187   -0.22621   -0.21748 
  -0.23821   -0.24249   -0.24961   -0.25761   -0.25711   -0.25001   -0.25001   -0.25711   -0.25761   -0.24961   -0.24249   -0.23821 
  -0.23191   -0.23388   -0.24176   -0.24961   -0.24187   -0.22912   -0.22912   -0.24187   -0.24961   -0.24176   -0.23388   -0.23191 
  -0.21225   -0.21876   -0.23388   -0.24249   -0.22621   -0.20674   -0.20674   -0.22621   -0.24249   -0.23388   -0.21876   -0.21225 
  -0.21255   -0.21225   -0.23191   -0.23821   -0.21748   -0.19363   -0.19363   -0.21748   -0.23821   -0.23191   -0.21225   -0.21255 

  -0.21255   -0.21225   -0.23191   -0.23821   -0.21748   -0.19363   -0.19363   -0.21748   -0.23821   -0.23191   -0.21225   -0.21255 
  -0.21225   -0.21876   -0.23388   -0.24249   -0.22621   -0.20674   -0.20674   -0.22621   -0.24249   -0.23388   -0.21876   -0.21225 
  -0.23191   -0.23388   -0.24176   -0.24961   -0.24187   -0.22912   -0.22912   -0.24187   -0.24961   -0.24176   -0.23388   -0.23191 
  -0.23821   -0.24249   -0.24961   -0.25761   -0.25711   -0.25001   -0.25001   -0.25711   -0.25761   -0.24961   -0.24249   -0.23821 
  -0.21748   -0.22621   -0.24187   -0.25711   -0.26761   -0.26651   -0.26651   -0.26761   -0.25711   -0.24187   -0.22621   -0.21748 
  -0.19363   -0.20674   -0.22912   -0.25001   -0.26651   -0.27754   -0.27754   -0.26651   -0.25001   -0.22912   -0.20674   -0.19363 
  -0.19363   -0.20674   -0.22912   -0.25001   -0.26651   -0.27754   -0.27754   -0.26651   -0.25001   -0.22912   -0.20674   -0.19363 